LAMMPS data file via write_data, version 21 Nov 2023, timestep = 20, units = metal

8 atoms
1 atom types

0 5.879714 xlo xhi
0 4.895277 ylo yhi
0 5.309708 zlo zhi
-0.215079 0.463343 0.865881 xy xz yz

Masses

1 28.0855

Atoms # atomic

1 1 3.613820988818613 3.052777378605469 4.71180564733079 0 0 0
2 1 2.7882033949410845 3.0329615825293383 2.385204251697065 0 0 0
3 1 0.4737847927391989 3.295969299722638 3.125513183663515 0 0 0
4 1 0.8361042557914246 2.4497948343343148 0.142389346935646 0 0 0
5 1 4.868606332763178 5.084350269367546 4.976111656226936 0 0 0
6 1 0.4186378481441775 5.020594419301409 1.180665814143607 0 -1 0
7 1 5.098733356899058 1.2644157025743696 2.8610546412840274 0 0 0
8 1 3.205643029903267 0.4620895135649164 1.3468614587184167 0 0 0

Velocities

1 0 0 0
2 0 0 0
3 0 0 0
4 0 0 0
5 0 0 0
6 0 0 0
7 0 0 0
8 0 0 0
