LAMMPS data file via write_data, version 2 Aug 2023, timestep = 4, units = metal

8 atoms
1 atom types

0.006374927019036816 5.437327072980963 xlo xhi
0.006374927019036816 5.437327072980963 ylo yhi
0.006374927019036816 5.437327072980963 zlo zhi

Masses

1 28.0855

Atoms # atomic

1 1 4.079589502897702 4.079589502897702 1.364113429916737 0 0 0
2 1 0.006374959440753646 2.7218510324217178 2.7218510324217178 0 0 0
3 1 4.079589502897702 1.3641134299167368 4.079589502897702 0 0 0
4 1 0.006374959440753652 0.006374959440753642 0.006374959440753652 0 0 0
5 1 1.3641134299167368 4.079589502897702 4.079589502897702 0 0 0
6 1 2.7218510324217178 2.7218510324217178 0.006374959440753654 0 0 0
7 1 1.3641134299167368 1.3641134299167368 1.364113429916737 0 0 0
8 1 2.7218510324217178 0.006374959440753649 2.7218510324217178 0 0 0

Velocities

1 0 0 0
2 0 0 0
3 0 0 0
4 0 0 0
5 0 0 0
6 0 0 0
7 0 0 0
8 0 0 0
