7
Lattice="25.0 0.0 0.0 0.0 25.0 0.0 0.0 0.0 25.0" Properties=species:S:1:pos:R:3:forces:R:3 config_type=cluster magmom=1.0014055 stress="0.00013574034046970912 -0.00011648528481635924 7.686418488525232e-05 -0.00011648528481635924 0.00024660826707277345 -1.0853984369910987e-05 7.686418488525232e-05 -1.0853984369910987e-05 -0.00015438372822872238" free_energy=-16.88336596 energy=-16.88336596 pbc="T T T"
Al       8.28455000       2.28658000       3.30007000      -0.08543200      -0.81893400       0.37679400
Al      10.03266000       0.36697000       3.28830000      -0.01508400       0.46216100      -0.13407800
Al       8.34559000       0.38248000       1.21417000       0.13140800       0.00899000      -0.93716100
Al       8.64968000      23.25851000       2.81291000      -0.70285300       0.65680600      -0.06691400
Al       6.09676000       1.41566000       2.19185000       0.69704500      -0.53655300      -0.08683700
Al       6.09321000      23.83029000       2.13414000       0.21095700       0.14647600       0.21970100
Al       7.33870000      24.96360000       4.37652000      -0.23604000       0.08105300       0.62849500
7
Lattice="25.0 0.0 0.0 0.0 25.0 0.0 0.0 0.0 25.0" Properties=species:S:1:pos:R:3:forces:R:3 config_type=cluster magmom=3.0027367 stress="-0.0009487343531707589 -0.0001434610872584267 -0.00018005505526348024 -0.0001434610872584267 -0.0006595277863138322 2.5908504381541406e-05 -0.00018005505526348024 2.5908504381541406e-05 -8.050298470564227e-05" free_energy=-11.12762713 energy=-11.12762713 pbc="T T T"
Al       1.50958000       3.13582000       0.37124000       6.99423300      -4.43904600      -0.22306900
Al       1.41753000       5.36482000       0.32202000       0.17619100       2.85090300      -0.48484300
Al       4.33289000       4.76362000      24.34914000      -0.57498100       0.09716900       0.46540200
Al       3.57114000       2.97760000      22.61922000       2.49273200       2.27416100      -0.64003900
Al       0.85364000       0.62803000      21.24395000      -0.71861500      -0.79893100      -1.58714500
Al       1.89691000       1.68864000      23.03358000      -2.43162000      -1.23513400       2.79489300
Al      24.50803000       3.49609000       0.29604000      -5.93793900       1.25087800      -0.32519800
7
Lattice="25.0 0.0 0.0 0.0 25.0 0.0 0.0 0.0 25.0" Properties=species:S:1:pos:R:3:forces:R:3 config_type=cluster magmom=1.0020669 stress="8.862318807841639e-05 0.00012375040143888737 -9.274882561062523e-06 0.00012375040143888737 -5.89073631300862e-05 5.5873989694906925e-05 -9.274882561062523e-06 5.5873989694906925e-05 -0.00010775965505837444" free_energy=-16.46594859 energy=-16.46594859 pbc="T T T"
Al      10.36829000      16.85471000      22.50094000      -0.53408900       0.87595300      -0.33672500
Al      14.13536000      16.01375000      24.71482000      -0.26056600       0.22842300       0.06067400
Al      12.30724000      15.55093000      20.90120000       0.46826000       0.52874900      -0.97224500
Al      12.82174000      18.27728000      21.69935000      -0.35407000      -0.19805100       0.38986600
Al      14.99992000      17.46209000      22.80002000      -0.54432800      -0.24537800      -0.27303100
Al      12.03413000      17.84561000      24.25920000       0.43363100       0.24933400      -0.34996700
Al      12.18435000      15.41599000      23.23412000       0.79116300      -1.43903000       1.48142700
7
Lattice="25.0 0.0 0.0 0.0 25.0 0.0 0.0 0.0 25.0" Properties=species:S:1:pos:R:3:forces:R:3 config_type=cluster magmom=3.5571037 stress="0.0001449153588847575 -1.4336746462153843e-05 -2.0391010314260603e-05 -1.4336746462153843e-05 9.050188232530724e-05 -6.623489484387314e-05 -2.0391010314260603e-05 -6.623489484387314e-05 0.00011164811524379973" free_energy=-15.90572822 energy=-15.90572822 pbc="T T T"
Al       4.71499000       5.75650000       3.41465000       0.82151000      -0.34645400      -0.10869700
Al       7.17394000       6.49351000       3.88759000      -0.24888100      -0.50307100      -0.14902400
Al       6.52871000       5.55839000       1.36614000      -0.06149400       0.37748500      -0.48453200
Al       8.74783000       4.82084000       2.66256000      -0.85634600       0.03408400       0.06771700
Al       4.76884000       3.55227000       1.84877000       0.73605100       0.22986100       0.07579900
Al       7.32651000       2.92349000       1.53831000      -0.42762200       0.19214000       0.28074900
Al       6.53624000       3.72469000       4.01372000       0.03678100       0.01595400       0.31798800
7
Lattice="25.0 0.0 0.0 0.0 25.0 0.0 0.0 0.0 25.0" Properties=species:S:1:pos:R:3:forces:R:3 config_type=cluster magmom=5.0018788 stress="3.061460226245738e-05 0.00010749127016596148 9.940851584794266e-05 0.00010749127016596148 -4.035759800796114e-05 -0.0001622854787820906 9.940851584794266e-05 -0.0001622854787820906 7.363108315804481e-05" free_energy=-13.00660085 energy=-13.00660085 pbc="T T T"
Al      13.29689000       7.30690000       9.07014000       0.50118300      -0.34889500      -0.49034500
Al      11.43355000       8.56291000       7.27200000       0.55766400      -0.44006700       0.39791900
Al      11.88888000       8.95539000      10.02717000      -1.00187900       1.06993500       0.41704000
Al      15.81728000       6.98436000       8.41189000      -0.04455600      -0.21474900      -0.37844600
Al      18.34966000       7.20811000       9.09409000      -0.00931200       0.03981800      -0.10254900
Al      13.09325000       5.36773000       7.44959000       0.26352400       0.17731800      -0.38343200
Al      15.46439000       8.17810000       6.02600000      -0.26662500      -0.28336000       0.53981300
7
Lattice="25.0 0.0 0.0 0.0 25.0 0.0 0.0 0.0 25.0" Properties=species:S:1:pos:R:3:forces:R:3 config_type=cluster magmom=3.0016108 stress="0.00010555016082781179 3.7492745319180735e-05 0.0001289932691046293 3.7492745319180735e-05 0.0003289587384796771 -3.5389356743758075e-06 0.0001289932691046293 -3.5389356743758075e-06 2.2294670597655002e-05" free_energy=-15.92572181 energy=-15.92572181 pbc="T T T"
Al      14.44478000      12.37457000      15.39104000      -1.04667600      -0.37802100      -0.70908300
Al      11.20851000      12.56259000      12.45494000       0.33173700       0.13431300       0.23834900
Al      13.80313000      12.12929000      12.82036000       0.42932600      -0.30091000      -0.09796700
Al      11.59461000      11.98473000      14.98904000       0.14794400       0.05030900       0.65174300
Al      11.94867000      10.07982000      13.30721000      -0.14095700       0.43752600      -0.27936800
Al      13.89279000       9.44430000      14.76537000       0.27706500       0.85173600       0.16114200
Al      12.72965000      14.44119000      13.95571000       0.00156100      -0.79495200       0.03518400
7
Lattice="25.0 0.0 0.0 0.0 25.0 0.0 0.0 0.0 25.0" Properties=species:S:1:pos:R:3:forces:R:3 config_type=cluster magmom=3.0054118 stress="-9.595071979220333e-05 8.69379806144279e-05 8.36986373780945e-06 8.69379806144279e-05 0.00012215257510266126 -7.612768680839809e-05 8.36986373780945e-06 -7.612768680839809e-05 4.146858663236837e-05" free_energy=-16.19508846 energy=-16.19508846 pbc="T T T"
Al      12.59512000      19.20071000      19.07366000      -1.36065000       0.26503000       0.60252500
Al      14.94034000      15.51004000      19.54848000       0.60238100       0.25534000      -0.20020600
Al      11.19061000      17.42493000      20.40807000       0.89116200      -0.14011100      -0.30103400
Al      13.92021000      17.44153000      21.00847000      -0.25538600       0.33043400      -0.26695000
Al      14.62483000      18.22223000      18.44309000       0.89874900      -1.30348700       0.13699000
Al      12.68802000      16.33319000      18.38131000      -0.29636300       0.50199400      -0.21899500
Al      12.66711000      14.98110000      20.62983000      -0.47989300       0.09080000       0.24767000
7
Lattice="25.0 0.0 0.0 0.0 25.0 0.0 0.0 0.0 25.0" Properties=species:S:1:pos:R:3:forces:R:3 config_type=cluster magmom=3.0016696 stress="3.5408081271135726e-05 8.83548031860034e-05 0.00016529388618076633 8.83548031860034e-05 9.67059423964352e-05 -3.7018390625613606e-05 0.00016529388618076633 -3.7018390625613606e-05 -1.210852770421352e-05" free_energy=-14.39259126 energy=-14.39259126 pbc="T T T"
Al      17.89846000      18.93348000       8.92118000       0.34976000       0.31258600       0.17012500
Al      19.72766000      18.83005000       7.04520000      -0.14279800       0.71930900       1.01311200
Al      21.80851000      19.37671000       8.70415000      -0.05660900      -0.46350800      -1.03888100
Al      22.73662000      21.06521000      10.49958000      -0.07995400       0.11094900       0.17364800
Al      21.15789000      17.84198000       5.24295000       0.49411100      -0.21214900      -0.44684400
Al      19.98988000      20.40839000      10.08620000      -0.68559000       0.19446900       0.06154500
Al      19.61688000      21.84039000       7.94622000       0.12107900      -0.66165600       0.06729400
7
Lattice="25.0 0.0 0.0 0.0 25.0 0.0 0.0 0.0 25.0" Properties=species:S:1:pos:R:3:forces:R:3 config_type=cluster magmom=1.2474735 stress="-0.0002473510066587535 0.00013967249121901555 1.2220874868479419e-05 0.00013967249121901555 -0.0003229544067005774 8.027204886798459e-05 1.2220874868479419e-05 8.027204886798459e-05 -0.0003584124200447202" free_energy=-15.12687981 energy=-15.12687981 pbc="T T T"
Al      16.33094000      21.33148000      13.35572000       0.29093600      -0.41420400       0.34340500
Al      17.97813000      24.18542000      15.43734000       0.52923200       1.51667800       0.27440300
Al      17.75270000      21.79798000      15.44166000       1.34032300      -2.24218000      -0.47108300
Al      14.51261000      23.11621000      14.25074000      -0.81237900       0.39039100      -0.50627000
Al      18.25734000      24.19211000      17.92166000      -0.37962600      -0.36920600       0.40881100
Al      15.72163000      22.71740000      16.27934000      -0.55181100       0.46427400       1.71150400
Al      16.72815000      23.88553000      13.51544000      -0.41667500       0.65424800      -1.76077000
7
Lattice="25.0 0.0 0.0 0.0 25.0 0.0 0.0 0.0 25.0" Properties=species:S:1:pos:R:3:forces:R:3 config_type=cluster magmom=1.0015368 stress="0.00016061275433635388 2.63204439838497e-05 -6.723977781314035e-05 2.63204439838497e-05 -6.413774777757636e-05 -0.00014806732099332853 -6.723977781314035e-05 -0.00014806732099332853 5.730953679386008e-05" free_energy=-17.40821946 energy=-17.40821946 pbc="T T T"
Al       6.39680000      19.42130000      14.73263000      -0.28706200       0.16656700      -0.44161600
Al       7.80047000      17.49320000      15.20994000       0.75705200      -0.71382600      -0.11855900
Al       8.48697000      16.99562000      17.82472000      -0.36491000       0.15766700      -0.33467200
Al       9.31929000      19.62051000      14.23066000      -0.72795100      -0.56652900       0.38186000
Al       6.64731000      19.05426000      17.31468000       0.71432200       0.23978300      -0.11948600
Al       9.64329000      19.09124000      16.77789000      -0.37029000       0.44491300      -0.07516300
Al       7.91309000      21.02384000      16.04865000       0.27883900       0.27142500       0.70763600
7
Lattice="25.0 0.0 0.0 0.0 25.0 0.0 0.0 0.0 25.0" Properties=species:S:1:pos:R:3:forces:R:3 config_type=cluster magmom=1.0014735 stress="-7.272606433479172e-05 7.999118095731983e-05 0.00010746630412945794 7.999118095731983e-05 0.00023546093177394592 0.00017961190811554255 0.00010746630412945794 0.00017961190811554255 -0.00011659139047149925" free_energy=-17.270974 energy=-17.270974 pbc="T T T"
Al      23.07494000      21.83608000      23.05542000       0.71597000      -0.95922700      -1.25085900
Al      22.87710000      19.04145000      23.06357000      -0.14799200       0.83248900       0.40694000
Al      21.58742000      20.51260000      21.17211000       0.43693400       0.51916200      -0.17835000
Al      20.11008000      19.29464000      23.04699000       0.11891500       0.53799200       0.47364700
Al      20.32241000      21.98023000      22.82639000      -0.53599800       0.10548600      -0.30641000
Al      21.48879000      20.64426000      24.82410000      -0.05562200      -0.85857500       0.72055400
Al      21.89250000      23.28694000      24.70210000      -0.53220700      -0.17732700       0.13447600
7
Lattice="25.0 0.0 0.0 0.0 25.0 0.0 0.0 0.0 25.0" Properties=species:S:1:pos:R:3:forces:R:3 config_type=cluster magmom=1.0020213 stress="-0.00010138083273172176 -9.570105942716799e-05 0.00014113300435447223 -9.570105942716799e-05 -3.7586367956068984e-05 -5.835811032700846e-06 0.00014113300435447223 -5.835811032700846e-06 -5.3308729444168905e-05" free_energy=-15.89026955 energy=-15.89026955 pbc="T T T"
Al       8.01769000       7.79212000       2.33725000      -1.50454100       0.42330000       0.45752100
Al       8.06265000       8.58514000      24.54304000       0.18774900       0.44375700      -0.27607600
Al       6.17180000       7.23656000       0.28443000      -0.30039800      -0.77449200       0.38235700
Al       6.43260000       9.88940000       2.09921000       0.25049400      -0.20990700       0.15631400
Al       4.52273000       9.12095000       0.11846000       0.06686000       0.04157200      -0.07038800
Al       6.62766000      10.76585000      24.68508000       0.24470700       0.08695200       0.06165400
Al       9.97794000       7.64105000       0.97446000       1.05512900      -0.01118300      -0.71138100
7
Lattice="25.0 0.0 0.0 0.0 25.0 0.0 0.0 0.0 25.0" Properties=species:S:1:pos:R:3:forces:R:3 config_type=cluster magmom=3.0018185 stress="-0.0002924833591480154 0.0003458545036834431 0.0001802922326102638 0.0003458545036834431 -0.0004829305271060912 0.00034164148502347196 0.0001802922326102638 0.00034164148502347196 -0.00046676501847005356" free_energy=-10.07150377 energy=-10.07150377 pbc="T T T"
Al       6.78648000       8.70033000       5.08172000      -0.80487000      -3.24097300       5.20908400
Al       4.15785000      13.83592000       8.98935000      -1.00641000       0.12058300       0.62625100
Al       7.01703000       9.86339000       3.41625000       0.69278700       3.60064900      -4.88769900
Al       5.52745000       9.61311000       7.21221000       0.58582300       0.78201700      -0.12840300
Al       6.95418000      12.40162000       2.52558000      -0.02763400      -0.16074100       0.17361800
Al       6.15113000      13.32050000       7.77492000      -1.83513900       3.47911400      -0.28461700
Al       7.37511000      11.62346000       7.53981000       2.39544200      -4.58064900      -0.70823300
7
Lattice="25.0 0.0 0.0 0.0 25.0 0.0 0.0 0.0 25.0" Properties=species:S:1:pos:R:3:forces:R:3 config_type=cluster magmom=3.0013798 stress="-0.00012428092971458743 -2.1901455522724354e-05 -0.00010115613840318996 -2.1901455522724354e-05 0.00012354443163773321 -0.00011762123947727 -0.00010115613840318996 -0.00011762123947727 0.00014205050619597707" free_energy=-14.22012329 energy=-14.22012329 pbc="T T T"
Al      15.44341000      23.71959000       4.39288000       0.06911100      -0.34908200       0.64733700
Al      12.16573000      22.65731000       7.62590000      -2.08068900      -0.85207300      -0.23483500
Al      14.81745000       0.68014000       6.23884000       0.26136400      -0.56526500       0.18772500
Al      17.46951000      24.83642000       2.99523000      -0.18482500       0.04844500       0.27584200
Al      14.24145000      21.60185000       5.95185000       0.05550000       0.29559900      -0.62772500
Al      17.54625000       0.78701000       5.55947000      -0.62542300      -0.27694200      -0.20699200
Al      14.28816000      23.41366000       7.66940000       2.50496200       1.69931800      -0.04135200
7
Lattice="25.0 0.0 0.0 0.0 25.0 0.0 0.0 0.0 25.0" Properties=species:S:1:pos:R:3:forces:R:3 config_type=cluster magmom=3.0013124 stress="0.0002499225084186174 2.779344013755815e-05 -3.294892667553772e-05 2.779344013755815e-05 0.00013974114781940028 -0.00011154825109778557 -3.294892667553772e-05 -0.00011154825109778557 -5.336490302630186e-06" free_energy=-16.28485518 energy=-16.28485518 pbc="T T T"
Al       2.43570000       2.36072000      12.02119000       0.62848000       0.87734600      -0.36358400
Al       1.13032000       4.40223000      10.32017000       0.52420700      -0.28684100       0.14039600
Al       3.47906000       3.02853000       9.65526000      -0.16698400      -0.05993000      -0.47700800
Al       3.21269000       5.80499000       9.27474000       0.05952500      -0.34571400       0.09368000
Al       5.14084000       2.55625000      11.69301000      -0.40135000      -0.07027400       0.02710900
Al       5.50599000       4.71587000      10.34551000      -0.62215400      -0.08469700       0.24570100
Al       3.33038000       4.98393000      11.86956000      -0.02172300      -0.02989200       0.33370400
7
Lattice="25.0 0.0 0.0 0.0 25.0 0.0 0.0 0.0 25.0" Properties=species:S:1:pos:R:3:forces:R:3 config_type=cluster magmom=1.0016187 stress="-0.0022056494609411295 -0.0004476160684718437 0.0001622792372729647 -0.0004476160684718437 -0.001906331649300272 -0.000292876574222946 0.0001622792372729647 -0.000292876574222946 -0.002870338975302067" free_energy=-0.07949778 energy=-0.07949778 pbc="T T T"
Al       1.27395000       2.66637000       1.34069000       3.45211200      -0.03800600       6.11947000
Al       0.94474000       3.17312000      23.51444000      16.81437800       1.35166000     -19.04972100
Al       3.06170000       3.76967000       0.27719000       0.48783000       0.65476900      -0.96939200
Al      24.23548000       1.81975000      23.95628000     -14.15807100     -10.21260200     -12.23033300
Al      21.95857000       0.46449000      24.43181000       0.18565300      -0.00082700       0.03559800
Al      24.97452000       3.18174000      24.79773000     -11.30225100      15.24079500      22.33973800
Al       0.52358000       0.93689000       0.16120000       4.52034900      -6.99578900       3.75464000
7
Lattice="25.0 0.0 0.0 0.0 25.0 0.0 0.0 0.0 25.0" Properties=species:S:1:pos:R:3:forces:R:3 config_type=cluster magmom=0.9970767 stress="-9.984542148675448e-05 3.146968901270339e-05 5.545580858347275e-05 3.146968901270339e-05 2.4391817663951772e-05 -9.220581431667338e-05 5.545580858347275e-05 -9.220581431667338e-05 -0.0004449759101115951" free_energy=-13.93154725 energy=-13.93154725 pbc="T T T"
Al       0.65719000       0.90177000       3.39418000      -1.03187800      -0.64281600      -0.23305500
Al      23.32820000       2.25806000       2.96946000       0.08551900      -0.13169300      -0.50960900
Al      23.02916000       1.69702000       5.33907000       0.06758400      -0.01844800       0.43221600
Al      21.91602000      24.49934000       3.95162000       1.00687900       0.60313600      -1.48076200
Al      24.40418000      23.46265000       2.44512000       2.28891000       1.06914800       0.67492500
Al      22.25649000      22.81577000       2.28847000      -1.89169800      -1.17243900      -1.13140000
Al      21.45008000      24.95631000       6.14424000      -0.52531700       0.29311300       2.24768500
7
Lattice="25.0 0.0 0.0 0.0 25.0 0.0 0.0 0.0 25.0" Properties=species:S:1:pos:R:3:forces:R:3 config_type=cluster magmom=3.0037234 stress="0.00024117815413325497 -4.629951469580201e-05 -0.00017751476104924574 -4.629951469580201e-05 7.451737745392022e-05 -5.798361977945546e-05 -0.00017751476104924574 -5.798361977945546e-05 6.212798183904195e-05" free_energy=-16.12712335 energy=-16.12712335 pbc="T T T"
Al       1.74535000       8.10493000      12.22814000       0.94284600       0.19129400      -0.52044700
Al       5.71285000       9.33107000      11.01233000      -0.33741800       0.69264500       0.87542800
Al       3.37375000      10.77481000      12.15859000       0.19887500      -0.37066600       0.18125000
Al       5.09557000       7.15308000      10.01395000      -0.90971200      -0.40027500       0.09165500
Al       3.29512000       5.84103000      11.68807000       0.05089400       0.36438600       0.11147800
Al       4.30167000       7.97385000      12.98705000       0.17833100       0.01483300      -0.38473900
Al       3.13258000       9.12337000      10.15875000      -0.12381600      -0.49221700      -0.35462400
7
Lattice="25.0 0.0 0.0 0.0 25.0 0.0 0.0 0.0 25.0" Properties=species:S:1:pos:R:3:forces:R:3 config_type=cluster magmom=3.0017291 stress="0.00015336636224120342 4.818445045181876e-06 1.3325621983760757e-05 4.818445045181876e-06 6.214046485729372e-05 7.799389803703719e-05 1.3325621983760757e-05 7.799389803703719e-05 0.00016289090516730125" free_energy=-16.19327261 energy=-16.19327261 pbc="T T T"
Al      15.97566000      17.59091000      23.35134000      -0.45267900      -0.45911900      -0.47608900
Al      12.12679000      16.50997000      21.06485000       0.28538100       0.14161900       0.25215800
Al      12.98549000      17.70007000      23.39081000       0.42799900      -0.52337100      -0.48130000
Al      14.24430000      18.14119000      21.14981000      -0.05927200       0.42914900       0.08480000
Al      14.69445000      15.37095000      22.30423000      -0.13391700       0.60232000       0.15964000
Al      16.40631000      17.01474000      20.33189000      -0.15359000       0.03588900       0.22643100
Al      14.19100000      15.65208000      19.77860000       0.08607900      -0.22648700       0.23436000
7
Lattice="25.0 0.0 0.0 0.0 25.0 0.0 0.0 0.0 25.0" Properties=species:S:1:pos:R:3:forces:R:3 config_type=cluster magmom=1.0031422 stress="4.159341681488603e-05 7.932958098997621e-05 9.366632745213006e-05 7.932958098997621e-05 -0.00010295993454057023 -4.090060930191299e-05 9.366632745213006e-05 -4.090060930191299e-05 -1.1234716426589865e-06" free_energy=-14.7257679 energy=-14.7257679 pbc="T T T"
Al      21.61755000       2.96443000      15.58803000       0.59385200      -0.75142000      -0.41955600
Al      24.38056000       3.27832000      18.34163000       0.29237800       0.29169900      -0.37671400
Al      24.50308000       5.65785000      19.84981000      -0.52552400      -0.24476400      -0.46978800
Al       0.07349000       4.57709000      16.14445000      -0.45711100      -0.40965600      -0.07470300
Al      22.02166000       3.41347000      18.90822000       0.29273800      -0.24653300       0.78551100
Al      21.15580000       4.76223000      17.17714000      -0.96222700       0.94401000      -0.02615900
Al      23.09693000       6.12799000      16.61100000       0.76589300       0.41666500       0.58140900
7
Lattice="25.0 0.0 0.0 0.0 25.0 0.0 0.0 0.0 25.0" Properties=species:S:1:pos:R:3:forces:R:3 config_type=cluster magmom=5.0019247 stress="0.00019370523572178694 -5.666041984476822e-05 5.692256322805531e-06 -5.666041984476822e-05 7.902998855193383e-05 -4.311010353247567e-05 5.692256322805531e-06 -4.311010353247567e-05 0.00021313505363066153" free_energy=-14.43996334 energy=-14.43996334 pbc="T T T"
Al      17.86673000      11.04369000      24.35677000      -0.00372500      -0.14822100      -0.33848700
Al      15.97858000       9.63598000       0.68430000      -0.43045900       0.72266500       0.13974900
Al      17.83225000      12.04488000       1.68803000      -0.77089700       0.13004400       0.16544700
Al      15.71938000      12.76312000      24.88008000       0.37216000      -0.25891900       0.77041700
Al      13.72098000      13.55158000       2.88619000       0.11100100       0.11874400      -0.28342100
Al      14.79579000      11.14476000       2.75782000       0.47087800      -0.21962900      -1.01291400
Al      13.48424000      11.38898000      24.71987000       0.25104300      -0.34468300       0.55920900
7
Lattice="25.0 0.0 0.0 0.0 25.0 0.0 0.0 0.0 25.0" Properties=species:S:1:pos:R:3:forces:R:3 config_type=cluster magmom=2.3441266 stress="-0.00015922089780128192 2.970958343920431e-06 -4.9226782475841255e-05 2.970958343920431e-06 -0.0001988794467871441 -5.228512194752406e-05 -4.9226782475841255e-05 -5.228512194752406e-05 -5.18232502722087e-05" free_energy=-15.50579721 energy=-15.50579721 pbc="T T T"
Al      16.74210000       5.40788000      15.01080000      -0.46662300      -0.24974300      -0.29643300
Al      15.16476000       8.98092000      15.13126000      -1.11800900       1.15050600       0.62611200
Al      14.96679000       6.87346000      16.32952000      -0.23286300      -1.38524800      -0.33679700
Al      15.84223000       8.68018000      17.84119000       0.74932700       0.06328900      -0.25314100
Al      17.63023000       6.60884000      17.03563000      -0.21891800       0.85430000       0.58402100
Al      19.15302000       6.50119000      14.34349000       0.54419500      -0.30807200       0.04608200
Al      17.03069000       7.86227000      14.32621000       0.74289100      -0.12503100      -0.36984400
7
Lattice="25.0 0.0 0.0 0.0 25.0 0.0 0.0 0.0 25.0" Properties=species:S:1:pos:R:3:forces:R:3 config_type=cluster magmom=3.00121 stress="-0.00011792707342443828 -0.00015345374336896579 -0.0002667808245676281 -0.00015345374336896579 -0.0008397201547780819 -0.0012038872462368665 -0.0002667808245676281 -0.0012038872462368665 -0.0015235149285733479" free_energy=-8.15373968 energy=-8.15373968 pbc="T T T"
Al       4.66139000       4.11593000       3.10437000      -0.03231200      -3.74890200      -3.24202000
Al       4.67189000       5.99188000       6.80752000      -2.10256600      -9.46953500     -10.30344800
Al       5.82898000       5.14224000      10.46614000      -0.15643200       0.25073800      -0.62794400
Al       4.66890000       5.72730000       4.45811000       0.04068200       3.57092100       1.93897400
Al       4.93492000       7.08138000       8.20252000       2.57199800       8.33047400      12.45972900
Al       6.85082000       2.54137000       9.74037000       1.14534000      -0.60593900       1.20055400
Al       5.39128000       3.70302000       8.32658000      -1.46671000       1.67224300      -1.42584600
7
Lattice="25.0 0.0 0.0 0.0 25.0 0.0 0.0 0.0 25.0" Properties=species:S:1:pos:R:3:forces:R:3 config_type=cluster magmom=1.8762765 stress="0.0002263046378862752 -8.464734676522875e-05 -2.4529130864721205e-05 -8.464734676522875e-05 0.00017375113104633815 5.033152959112259e-05 -2.4529130864721205e-05 5.033152959112259e-05 -0.00019741893365168747" free_energy=-16.49370182 energy=-16.49370182 pbc="T T T"
Al      20.78226000      22.58975000       7.90952000       0.44595500       0.44175500       0.10639000
Al      23.10707000      22.71463000       6.62272000      -0.66920600       0.57635000      -0.03680000
Al      23.15340000      23.74712000       9.03045000      -0.24175500       0.17690100       1.21767900
Al      24.17917000       0.05080000       6.95822000      -0.54641300       0.07545000      -0.03717200
Al      20.71850000       0.15648000       8.83802000       0.65105600      -0.74808100       0.56851300
Al      22.73877000       1.70694000       8.29356000       0.07543900      -0.61144300      -0.13619900
Al      21.39988000      24.90223000       6.49814000       0.28492500       0.08906800      -1.68241100
7
Lattice="25.0 0.0 0.0 0.0 25.0 0.0 0.0 0.0 25.0" Properties=species:S:1:pos:R:3:forces:R:3 config_type=cluster magmom=3.0027343 stress="0.0001560939017292144 5.699121982844003e-05 0.00011276534537733282 5.699121982844003e-05 0.0002209369400380156 3.409112284557436e-05 0.00011276534537733282 3.409112284557436e-05 -5.691632171892943e-05" free_energy=-13.48888096 energy=-13.48888096 pbc="T T T"
Al       0.17720000      14.26305000      20.43064000       0.01275500      -0.40269000       0.97298900
Al       2.58745000      16.01827000      21.17700000      -0.98772400       0.21181300       0.32523900
Al       2.57770000      18.17630000      19.45134000      -0.22683100      -0.64898500       0.03645200
Al       0.22391000      13.15205000      22.85162000       0.22546500       0.18612800      -0.20454000
Al       3.88810000      14.46968000      19.81020000      -0.02687600      -0.84777300      -0.72157000
Al       3.56751000      11.76273000      19.10066000      -0.19679200       0.72423700       0.21608400
Al       1.25862000      15.51004000      18.70826000       1.20000300       0.77727100      -0.62465400
7
Lattice="25.0 0.0 0.0 0.0 25.0 0.0 0.0 0.0 25.0" Properties=species:S:1:pos:R:3:forces:R:3 config_type=cluster magmom=5.3127898 stress="0.0001016304930967571 -6.611630617048134e-05 2.4410542191329423e-05 -6.611630617048134e-05 -1.8412451921355611e-06 4.3341039370133344e-05 2.4410542191329423e-05 4.3341039370133344e-05 0.0001929624961358068" free_energy=-15.39014834 energy=-15.39014834 pbc="T T T"
Al       1.82062000      12.42542000       4.03716000      -0.03910100      -0.31043100       0.10061000
Al       5.52361000      11.84247000       6.90653000      -0.26900200      -0.20575000      -0.42975600
Al       4.06925000       9.91368000       4.60052000      -0.10685800      -0.30565700       0.10583600
Al       2.74093000      11.55557000       6.55898000       0.16888800       0.01416200      -0.34339500
Al       4.28860000      12.65107000       4.65723000       0.62667500       0.35551000      -0.10020700
Al       3.60709000      10.99816000       2.20314000       0.10287000       0.17042700       0.54045000
Al       6.60464000      10.73020000       4.36536000      -0.48347200       0.28173800       0.12646300
7
Lattice="25.0 0.0 0.0 0.0 25.0 0.0 0.0 0.0 25.0" Properties=species:S:1:pos:R:3:forces:R:3 config_type=cluster magmom=3.0020859 stress="0.00010625545135903659 4.73106391741951e-06 7.046663803122198e-06 4.73106391741951e-06 0.00015484559990403774 -9.807907440412953e-05 7.046663803122198e-06 -9.807907440412953e-05 -0.00013126517842645082" free_energy=-15.97840031 energy=-15.97840031 pbc="T T T"